168
Lattice="13.0 0.0 0.0 0.0 13.0 0.0 0.0 0.0 13.0" Properties=species:S:1:pos:R:3:momenta:R:3:forces:R:3 energy=-7939.121859746458 pbc="T T T"
O        3.73184467       5.73747639       7.39509681       0.09749708       1.42737157       0.80978825       1.34777992      -0.70485138       0.88244856
O        5.09766629       3.90398456       7.71973338      -0.07176788       0.62810858      -0.21674425      -1.06756002       1.80350915      -0.98594411
O        4.15024907       4.84023662       9.52362410      -2.89333202      -0.65688195       0.38074748       0.72820119       1.43183750      -4.66783162
C        5.47331311       2.77370056       8.52313956       0.61722462      -0.30388088       0.03559445      -2.84097075      -0.27075611       0.33327492
C        5.10066377       1.48999128       7.77450524      -0.11133149      -0.91423193      -1.83698727       2.78481614       0.62457580      -1.66290056
C        4.39848664       4.91744396       8.25521908      -1.14403007      -1.37511560      -0.71232317      -2.07749326      -1.80957084       4.49989890
H        6.50123134       2.97423904       8.69153716       0.12185595      -0.39037147      -0.13222020       0.22259585      -0.55217916       0.64749718
H        4.80671614       2.68660734       9.39775798      -0.18786530      -0.31190579      -0.13943520       0.57530650       0.89178354       0.26099991
H        4.02034210       1.42170761       7.50757093       0.36698899      -0.23114600       0.42806881       1.24032044       0.02303359       0.20295966
H        5.88564057       1.58000473       6.87381143       0.28714627      -0.09164827      -0.06786938      -2.19669516      -0.95082233       1.34935452
C        2.12464277       7.62576226       7.34162266       0.26597233       0.95246861       0.69909324       0.97292240       1.35749290      -2.12294766
C        3.48344468       7.13548519       7.73630790      -1.25235111       0.49072948       1.48767486       2.02853418      -0.30502971      -0.34133478
H        1.96860922       7.43774129       6.27317685       0.08009631      -0.47688176       0.03241089       0.36847437      -0.11308458      -0.04253232
H        2.22281933       8.72445248       7.38606983       0.04171127       0.21185130      -0.12567989      -0.49464086      -0.39239458       0.35803971
H        3.78364592       7.35437262       8.75533040      -0.00506589      -0.35228468       0.33197837      -0.50278249      -0.46962684       0.68704609
H        4.33809666       7.67502876       7.18269350       0.27981537      -0.21963190      -0.25971871      -1.28615872      -0.38606023       0.01996373
H        5.47218048       0.69192997       8.43826070       0.18141227       0.39365065       0.42203920      -0.60270511       0.09761841      -0.60305745
H        1.22077983       7.25894711       7.72959358      -0.05522161      -0.07986674      -0.07202823      -0.55989916      -0.37670053       1.25766315
O       11.92144186      -0.01622135       0.67659618       0.00957318      -0.29572784       0.22968472      -0.39286870      -3.88471973       1.02919638
O       11.28586288       1.84227587      -0.05824122      -0.00733266       0.83387273      -0.55825340      -0.29064597       1.89462220       1.44025807
O       12.86347834       1.77734959       1.63884618      -1.70938160      -0.00735969       0.39426242      -1.25826068      -1.22491031      -2.00879667
C       10.51636443      -0.21895110       0.52606756      -0.89735325      -0.99169045       1.20954110      -1.03517034       0.73128726       1.95457846
C        9.98589501       1.21439260      -0.00205641      -0.38602072      -0.16023878       0.22496400       2.84617193      -1.75368348      -1.03210067
C       12.12052918       1.21404002       0.84620919      -0.73912420       0.35473270      -0.90183461       1.00940606       4.50075418       0.59057315
H       10.15087273      -0.57477158       1.58279773      -0.18443116      -0.05444422       0.22298883       0.11706424       0.73020471      -1.85458127
H       10.37812365      -0.96373069      -0.21630152       0.11611133      -0.12415477      -0.20634860      -0.28809649      -0.81148641      -0.45094862
H        9.79024825       1.04325945      -1.05023887      -0.31885196      -0.09219621       0.05245084      -0.66110976       0.11603955      -0.46932105
H        9.24407998       1.87186572       0.40845873      -0.00786785      -0.22600382       0.09963987      -0.08021237      -0.28557214       0.89752671
O        4.25652102       1.30267102       3.48142628       0.01008843      -1.16874926       1.04597503       0.74448897       1.68763867       1.10831967
O        6.00040365       1.98388348       4.68180354      -0.01516797      -1.30456728      -0.21182816      -0.27882444       3.85696725       1.54374593
O        5.49792668      -0.11616246       4.65856473      -0.52747912      -0.97516942       1.05579182       0.08956128      -2.60339899       0.95516064
C        4.52069853       2.75335503       3.16127983       0.73300518       1.46522875       0.00891691       1.02481325      -2.67000009       0.96901591
C        5.11117016       3.18980876       4.49681027       1.44191239      -1.17671378      -1.52612197       1.52199421      -0.64119585      -1.46086484
C        5.24200603       0.99959693       4.41777674      -0.13572672       0.63513981       1.19204933      -0.96412660      -0.43797073      -3.16461289
H        3.60428292       3.17813876       3.00403182       0.20183012      -0.23181820      -0.21171355      -2.17427313       1.08346658      -0.85262248
H        5.16005025       2.60714972       2.29858707       0.03686832      -0.25067191      -0.47177250       0.34455491       0.97770046      -0.14942555
H        5.54704958       4.18689968       4.63359270       0.10319762       0.49259426      -0.45443570       0.80467281      -0.67195756      -0.67235449
H        4.32498382       3.21065416       5.19659367      -0.23166767       0.23752984       0.06428120      -0.95681373      -0.56045547       1.28431555
O        9.23265544       8.66666076       3.60973802       0.87536840      -1.08699164      -1.62359856      -4.62394120       1.77180210      -0.06005485
O       11.22598625       9.39811393       3.86058416      -0.09913399      -1.65272118       1.61881695       0.90531509       1.37661801       0.59309135
O       10.76106135       7.29984923       3.22852780      -1.10564140       0.27873717      -1.25722476       2.08809431      -2.87169920      -1.30093892
C        9.07844036      10.07660130       3.72340666      -1.81618730       0.88570526      -1.34433621      -1.79488939      -0.66822164       4.24142907
C       10.46473302      10.58313060       4.24508034      -0.65123681      -0.81423811       0.12134422      -1.06202760      -0.41516313      -2.81906516
C       10.43014753       8.39261248       3.44531025      -1.54162957      -0.25855493      -0.63611449       2.37621484       0.68263744       1.96069042
H        8.18578359      10.16291075       4.56051815      -0.07240076       0.12445353      -0.39709867       1.91594544       0.34300789      -2.12593482
H        8.82506083      10.39633478       2.77631477       0.52324625      -0.12690052      -0.04034186      -0.84326803       1.17000916      -1.64920261
H       10.80380798      11.40068759       3.51894508       0.10058363      -0.59358660       0.07156099      -0.19366192      -0.68770149       1.31531308
H       10.31648919      10.93178342       5.27523303       0.50126889       0.10137517      -0.02513049       1.07155097      -0.65136332      -0.18964973
O       -0.52403737       5.97033168      -1.16797202       2.93531789      -1.46539818      -2.22425977       1.24862533       0.16447209       0.38091848
O       -0.35556950       6.64134658      -3.27001353      -3.50107063      -0.44463303       0.16972158       0.28078812       1.54736863       1.00010693
O       -2.38476899       6.72317144      -2.30320655       0.07186239      -0.18309519      -1.66245180       2.72443413       0.00350686       1.18491950
C        0.87167344       5.55514022      -1.64925747       1.32010392      -1.48240114       0.29851046      -2.08993921      -0.93201618       1.59126451
C        0.95746759       6.42446319      -2.86501930      -1.32182595      -0.76872576       0.13234635       3.00464293      -0.02215614       0.48744984
C       -1.18507164       6.54100693      -2.15472934       0.07694227       1.96262221      -0.97868008      -1.85730438      -1.12405889      -2.39676185
H        0.68131971       4.43426192      -1.79518047       0.22237245       0.67264229       0.54351416       0.75505408       1.38577435       0.13273237
H        1.68811492       5.85863663      -0.92205772       0.03716667       0.45170573       0.08847310      -1.50933625      -1.00298774      -0.47438576
H        1.77654790       7.25657048      -2.37670904      -0.81279714      -0.38968909      -0.44345258      -2.59064038      -0.50845877      -2.00157033
H        1.52468730       5.91142718      -3.65710153       0.13542767      -0.28619394      -0.24996632      -0.34216481       0.24777873       0.11653612
O       -1.08944593       2.35470591       6.65606746      -1.44033624      -0.27218238      -0.28750289       0.95117959       3.14440432      -1.22771754
O       -1.09923552       4.43925674       5.72683173       0.41326875       0.61527770      -2.23926457       0.67212390      -0.97441131      -0.35174125
O       -0.99856499       4.39406508       7.97179895       1.45945069       0.69583001      -0.39823118       0.71559919      -2.81827699      -2.79891526
C       -0.99211327       2.21731134       5.17784109       1.14505202      -0.41912224      -0.19149006       0.53100196       1.80774672       0.71782640
C       -1.47277223       3.57848125       4.50604708      -0.31160104      -0.86512388      -0.41213471       2.42110076       0.18226750       2.90050009
C       -0.97931806       3.76240485       6.91957079       0.94077179       0.36142889      -0.01838713      -1.93053954       1.08419070      -0.18291103
H       -1.73819518       1.48979601       5.00089935       0.41928187      -0.58342075      -0.03963663       0.10645309      -1.29303257      -0.64177624
H        0.15235540       2.14292304       4.88500056       0.16606804       0.56637983      -0.03339609      -2.27429802      -0.52440289       0.47745067
H       -2.47825710       3.92517813       4.40101540      -0.12136505       0.44221678      -0.58279028      -0.76648403      -0.83676283      -0.20168164
H       -0.86891309       3.75341739       3.56488011      -0.07531872       0.36951298       0.14611309      -0.44426276       0.17731474       1.33814253
O        5.60832344      -0.75714602       1.22385539      -0.22527289      -0.09718729      -0.61508888      -0.16442084       1.07928229       0.46863379
O        6.55773584      -2.44404203       2.19299254      -1.03826831      -0.44002974      -1.68257730      -0.42156214      -0.14570797       0.56253964
O        7.64166198      -0.48425405       2.13159032       0.53013645      -0.52324771       0.53525547       2.16600444       1.42323103       0.43810316
C        4.47084370      -1.57363160       1.51821350      -0.20497251       0.97022081       1.80273209      -0.04247068       1.12984862       0.50784945
C        5.13710069      -2.72162512       2.32409710      -0.34121478      -1.05216757      -1.65751706       0.82879163       2.11151763       0.37734537
C        6.69526625      -1.12961513       1.95211253      -0.28299017      -0.80201456      -0.41613991      -2.68924068      -2.00826416      -1.94570834
H        4.02849412      -1.92345539       0.56740275      -0.21533762       0.01096956       0.13615977       0.13662800       0.26335071       0.44062454
H        3.72251469      -0.89994593       2.11013513      -0.12797457      -0.14795596      -0.17620177       1.16946266      -1.31533806      -1.04234157
H        5.02602130      -2.56648808       3.40740527       0.25676522       0.07276280       0.44262046      -0.80808110      -0.81934857      -0.33860104
H        4.88253241      -3.58825782       1.79538052      -0.08704872       0.37111647      -0.04889072      -0.07952814      -1.68917903       0.25278844
O        7.36499439       6.57076004       0.16647999      -0.67404788      -0.31476554       1.16624655      -0.47556245       1.99913656      -1.22096182
O        5.51298647       6.27579348      -0.79745988       0.04021673       0.14403484       1.75627918      -3.87574818      -0.77836579       0.17941413
O        6.30268507       4.65793265       0.49954006      -1.66065500      -1.52593642       2.13373646      -0.45310105      -2.19891658       1.11303510
C        4.13245752       5.57159762      -0.53322484      -1.81676519       1.15843478       0.78815841       1.62617787       0.79553473       0.66665913
C        3.43511035       6.48609057       0.44994042      -0.87607131       1.81756320       0.91790645      -2.32135520       3.53951264       0.93965139
C        6.33017873       5.73720015       0.02428906       1.54094237      -0.64356187      -1.81850695       3.15052384       0.70252600      -0.31497353
H        3.85516972       5.26377467      -1.51827178       0.11665453      -0.21591227      -0.41764985      -0.86356267       0.56819854      -0.47651868
H        4.35280371       4.64321200       0.01529023      -0.07229354       0.13122865      -0.19985349       0.14665980       0.17661232      -0.18152446
H        2.36295794       6.29390162       0.98060571       0.11623765       0.43198580       0.42178982       2.68352031      -0.40025300      -1.45310834
H        4.11394312       6.80490880       1.26480720      -0.58934818       0.00426083       0.08809177      -0.11070045      -1.11618055      -0.08870276
C        8.34271752       5.47661133       1.95484507       1.61019396      -1.27065062      -1.46116939       0.97676451       1.24949590       2.50435953
C        8.61841932       6.21912958       0.68993547      -0.44039376       1.43044741      -1.06250345       0.18542097      -2.13091848      -0.94663199
H        9.20706090       5.70412439       2.65208698      -0.13669501       0.20327534       0.12258401      -1.13073173      -0.03153936      -0.33803893
H        8.26084122       4.41797309       2.00349615       0.02952180      -0.07071737       0.57975543      -0.38908408      -0.63476894      -0.65020560
H        9.14874876       5.60114618      -0.09392840      -0.04596595      -0.31625968      -0.34738694      -0.12383645       0.74726619       0.67981985
H        9.14448546       7.11441355       0.96615379      -0.40665474      -0.07665944       0.27748211       0.13940348       0.46323354      -0.48962115
H        3.24158398       7.59129004       0.08320863      -0.11013501       0.22535076       0.50516953       0.16948321      -1.93413391      -0.40261475
H        7.39376834       5.98673454       2.27332609       0.18121202      -0.09618713       0.19448440       0.99181344      -0.83840259       0.68855090
O        8.61337560       5.27007451       7.99036070      -0.86929144       0.92241892      -0.57234433      -0.75808155       1.57116245       1.56151504
O        8.16929901       3.20127917       8.54041100      -0.30193038       0.99968114      -0.22174570       1.14757616      -0.40971508      -0.18600715
O        9.40884700       3.66503376       6.69336521       0.18633285       0.00621734      -1.74848758      -1.63981743       0.11442709       0.13160577
C        8.59896343       1.76322765       8.47176930      -2.46739988      -2.09936124       0.51038609       0.86355149       0.18564375      -0.00161096
C        8.15347843       0.82204307       9.73311997      -0.54703815       0.16104197       0.45263402       0.12491737      -0.56583997      -1.65784916
C        8.67697449       4.07365852       7.58524430      -1.09284742       0.42196059      -0.54094738       3.08580512      -3.14962621      -0.07674316
H        8.14106200       1.40308991       7.52752791       0.31797605      -0.03286159      -0.26445884       0.25635974      -0.14011058       0.55391704
H        9.73814789       1.84255125       8.28426984       0.39512646      -0.04612632      -0.57060879      -1.54887335      -0.43176642       0.58378835
H        7.72800430       1.47395756      10.50528616       0.48513450      -0.22801245      -0.63912775       0.45185925      -0.45954106      -0.18630019
H        7.35726438       0.07134302       9.39386821      -0.31140159       0.09323407      -0.02983686       0.72054536       1.55444795       0.13530345
C        7.17048968       6.68431277       6.89439672      -2.33817853      -0.92651910       1.01933935      -0.05321675       1.83267888       1.37727040
C        8.66697854       6.41029327       7.14093628      -0.22583356      -0.87352212       1.21523826      -1.58032930       1.49688494       2.14262975
H        6.71472909       5.91409328       6.31052683      -0.23150951       0.11464078      -0.26891684      -0.41351612      -0.09488810      -0.32060849
H        7.11802301       7.71725822       6.46519518      -0.23754140      -0.17478231       0.09492881      -0.39492004      -1.06730309      -0.03389115
H        8.89624577       7.34373143       7.79241914      -0.45213751      -0.21805676      -0.44350112       0.70601326      -1.75243763      -0.71180740
H        9.34975880       6.27504802       6.33684704      -0.50121388      -0.11239593      -0.65293041       0.24649836      -0.02975396      -0.76275722
H        8.93728589       0.04976242      10.10680715       0.03464678      -0.33866383       0.15307637      -0.67193584       2.10988590      -0.63355142
H        6.65891859       6.76016370       7.96864960      -0.23198570      -0.03556917      -0.02673928       0.97212406      -0.39505666      -2.21028052
O        8.86101054       9.59187346      -1.53210494       1.59027594      -1.94220832       0.34973804      -5.79661737      -1.99572474       4.10635638
O       10.81830583       9.51237747      -1.75190964       0.15166477       1.99348996      -2.28597597       1.56602049       0.61333708      -1.87055175
O        9.44984631      10.01942820      -3.54725239      -0.33388374       0.95363398      -1.14667370       0.57291729       0.04676133      -1.93629335
C       11.96014619       9.97968831      -2.48733652      -1.07987101       0.85079143      -0.85051332       1.54921233      -2.32647857      -0.60353520
C       13.10975344      10.12406446      -1.45592742      -0.81317448       0.63042373       0.05501375       0.37495645      -1.92375911      -2.10326053
C        9.65447345       9.66383463      -2.43579002      -0.70648334       0.91311441      -0.37849616       3.83729574       0.61989292      -1.63497171
H       12.36186204       9.10952237      -3.19388219      -0.65777061      -0.26256120      -0.17964480      -1.15326814       1.51809530       0.80100973
H       11.65575869      10.82659572      -3.11148649       0.01303152       0.13147422       0.02290323       0.40376140       0.05599393       0.29621457
H       12.86970490      10.90158210      -0.81828196      -0.23692418      -0.09865271       0.45656361      -0.22512444       1.13294145       1.61665456
H       13.13421706       9.07393881      -0.98623570      -0.23059922      -0.21216434       0.13605188       0.34443613       1.89952323      -0.31515500
C        7.11267238      11.05748720      -1.56189268       1.17036737      -0.21148951       0.09684191      -0.31112579      -0.76103784      -1.28893182
C        7.39796315       9.55820889      -1.82362008      -0.19808744      -2.08725436      -0.68281014       1.91390353       0.59755829       2.44545087
H        6.02295305      10.99373203      -1.57419624       0.19999541       0.28993228       0.32364749       0.11294890       1.35505746       0.38529654
H        7.52394902      11.44457785      -2.50676588      -0.50613443       0.20842327      -0.01914835      -0.58002417       0.67991475       0.65895101
H        7.17141213       9.24325560      -2.90406336      -0.04923097       0.87996860      -0.03135287       0.26938234       0.06086007       1.96498325
H        7.14933077       9.00249715      -0.85940825      -0.05641313       0.18393311       0.21641665      -0.62728763      -0.21576014      -1.92258731
H       14.07275405      10.38619099      -1.99636222      -0.12182941       0.18276677       0.30959056      -1.08798360      -0.57364432       0.68976602
H        7.65351306      11.54237250      -0.68537483      -0.06696594      -0.02548501      -0.37713290      -1.17405062      -1.01182189      -1.06162136
O        1.31688657       9.76257550       3.45735780      -0.54658104       0.13367978      -0.63497048       1.52756489       1.62498224      -0.48159207
O        1.69178440       7.53210946       3.61425646      -1.06771055       0.09150884      -0.29169158      -1.58756189       2.84242996      -1.25851770
O        0.35568612       8.63098500       5.05797319      -0.35141487      -2.22546981       1.40903061      -2.62214881      -0.23947960       3.42532010
C        0.74946589       6.47457610       3.51867107      -0.01963075       0.06876791       0.90085963       1.57272551      -0.29956300      -1.57542500
C        0.40414034       5.75142381       2.21905632       0.47669815       1.73551839      -0.47944470      -2.03595356      -0.09893095       0.75266867
C        0.95628094       8.71373365       4.08010530       0.17783161       1.39314861      -0.54424066       3.94700120      -2.22140818      -1.94847063
H        1.20042457       5.79136031       4.12102239       0.06203590       0.36715163       0.22643951       1.39005302      -2.82182421       1.86135206
H       -0.04885156       6.76306571       4.05891365       0.18418196      -0.12745934      -0.18024673      -3.33596020       1.01046920       1.32940651
H       -0.59947502       5.18414017       2.49698872      -0.34487045      -0.01064670      -0.20599793       2.26278803       0.68739302      -0.58480449
H       -0.01325873       6.41088624       1.43709331      -0.28949548       0.13399464      -0.08333667       1.06089758      -0.37934480       0.05557497
C        2.41232373      11.95752850       4.36452341      -0.34387833      -1.49267271       0.33559538      -1.85661020       0.30017289       1.23826254
C        1.19237902      11.05053157       4.20472241      -1.45263399      -1.42165139      -0.85151092      -1.63050494      -0.42585879      -2.64744972
H        1.82408127      12.60682314       5.12061007       0.78756858      -0.01883924       0.08881671       2.10691246      -0.13967788      -1.03045658
H        2.79633915      12.50395106       3.49469785       0.56788855       0.33808223      -0.13982796      -1.11515604      -0.00663262       0.24806623
H        0.55731641      11.56737670       3.42637132       0.20852597       0.07049512       0.00778667       0.09586368       0.03304850       1.03033036
H        0.56499020      10.81101407       5.10509223       0.36912016      -0.19810674      -0.05047837       0.94327272       0.34585285      -0.68142253
H        1.26371787       5.07984925       2.04069257      -0.02772522      -0.10387763       0.10466322      -1.05098193       0.29856080      -0.73583422
H        3.29965372      11.48442005       4.71767135      -0.26717661      -0.12741272       0.29015901       0.20415310      -0.35541248       1.00498600
O       -0.07351143      13.70473482       8.72458843      -1.37278949       0.24153277       0.76905074       0.58450735      -0.47874752       0.25400528
O        1.17486241      14.36929124      10.51962591       0.85029287       0.08896005       0.97879534      -2.19626053      -1.36540076      -2.19096855
O        2.01583353      14.25027547       8.34739434       1.50934913       0.53969072      -1.44552806      -1.50837568       0.58342197       2.53001196
C        2.37364509      14.83316665      11.03132730       0.57794608      -1.59499028      -0.60878518       0.43297229       1.10225287       0.05922927
C        2.48408297      14.82322781      12.57319628       2.27387058      -0.86712540       0.13868920       3.58813120      -0.71330256       1.50521869
C        1.05844503      14.16414467       9.14423521      -0.62565025       1.20258576       0.06913577       3.61524657       0.68091805      -0.03926634
H        3.20088823      14.19308776      10.75821279       0.31077418       0.40242053       0.02966904       0.29820541      -0.23610560      -0.70448331
H        2.47333744      15.81139605      10.45747640       0.11263299       0.51905533      -0.01510865       0.60978506      -0.37198211       1.37432333
H        3.24830324      15.60417267      12.80168679       0.31267680       0.14062395      -0.25214018      -0.57902291       0.00095046      -0.32091327
H        1.74072494      14.97559791      13.36235747      -0.29409548      -0.03311691      -0.52248558      -0.41529678      -0.28951013      -1.20504565
C        1.30944286      11.76478584       7.67868540       2.25831085      -1.19208836      -2.20115535      -0.80276588       1.90149387       0.65693319
C        0.16706683      12.81692404       7.54181505       1.00122569       0.44982760      -0.63981326      -2.44356569      -0.50744075       1.95823872
H        0.99234778      10.87383473       7.14566834      -0.34080767      -0.13390645       0.13650099       0.33829997       0.03064496       0.33951259
H        1.51811405      11.63561138       8.76658587      -0.25803268       0.05874681      -0.10558032      -0.45220884      -0.42466639      -0.89248480
H       -0.82587323      12.39742748       7.78741044       0.30021060      -0.37162262       0.50834620       0.12068467      -1.05990034      -1.27216570
H        0.04608814      13.45699900       6.67726252       0.24421829       0.22897275       0.22640020       0.71596189      -0.24401596      -0.19271493
H        3.21439386      13.87931398      12.95314850      -0.45942836      -0.44369805      -0.10169274      -2.35783815       1.72773703      -1.11269282
H        2.17765909      12.27806259       7.29342235      -0.21958365       0.13718964      -0.33164619       0.44186731      -0.52964596      -0.35667568
